# vtk DataFile Version 3.0
written by Ali
ASCII
DATASET STRUCTURED_GRID
DIMENSIONS 61 221 2
POINTS 26962 double
0 0 0
1 0 0
2 0 0
3 0 0
4 0 0
5 0 0
6 0 0
7 0 0
8 0 0
9 0 0
10 0 0
11 0 0
12 0 0
13 0 0
14 0 0
15 0 0
16 0 0
17 0 0
18 0 0
19 0 0
20 0 0
21 0 0
22 0 0
23 0 0
24 0 0
25 0 0
26 0 0
27 0 0
28 0 0
29 0 0
30 0 0
31 0 0
32 0 0
33 0 0
34 0 0
35 0 0
36 0 0
37 0 0
38 0 0
39 0 0
40 0 0
41 0 0
42 0 0
43 0 0
44 0 0
45 0 0
46 0 0
47 0 0
48 0 0
49 0 0
50 0 0
51 0 0
52 0 0
53 0 0
54 0 0
55 0 0
56 0 0
57 0 0
58 0 0
59 0 0
60 0 0
0 1 0
1 1 0
2 1 0
3 1 0
4 1 0
5 1 0
6 1 0
7 1 0
8 1 0
9 1 0
10 1 0
11 1 0
12 1 0
13 1 0
14 1 0
15 1 0
16 1 0
17 1 0
18 1 0
19 1 0
20 1 0
21 1 0
22 1 0
23 1 0
24 1 0
25 1 0
26 1 0
27 1 0
28 1 0
29 1 0
30 1 0
31 1 0
32 1 0
33 1 0
34 1 0
35 1 0
36 1 0
37 1 0
38 1 0
39 1 0
40 1 0
41 1 0
42 1 0
43 1 0
44 1 0
45 1 0
46 1 0
47 1 0
48 1 0
49 1 0
50 1 0
51 1 0
52 1 0
53 1 0
54 1 0
55 1 0
56 1 0
57 1 0
58 1 0
59 1 0
60 1 0
0 2 0
1 2 0
2 2 0
3 2 0
4 2 0
5 2 0
6 2 0
7 2 0
8 2 0
9 2 0
10 2 0
11 2 0
12 2 0
13 2 0
14 2 0
15 2 0
16 2 0
17 2 0
18 2 0
19 2 0
20 2 0
21 2 0
22 2 0
23 2 0
24 2 0
25 2 0
26 2 0
27 2 0
28 2 0
29 2 0
30 2 0
31 2 0
32 2 0
33 2 0
34 2 0
35 2 0
36 2 0
37 2 0
38 2 0
39 2 0
40 2 0
41 2 0
42 2 0
43 2 0
44 2 0
45 2 0
46 2 0
47 2 0
48 2 0
49 2 0
50 2 0
51 2 0
52 2 0
53 2 0
54 2 0
55 2 0
56 2 0
57 2 0
58 2 0
59 2 0
60 2 0
0 3 0
1 3 0
2 3 0
3 3 0
4 3 0
5 3 0
6 3 0
7 3 0
8 3 0
9 3 0
10 3 0
11 3 0
12 3 0
13 3 0
14 3 0
15 3 0
16 3 0
17 3 0
18 3 0
19 3 0
20 3 0
21 3 0
22 3 0
23 3 0
24 3 0
25 3 0
26 3 0
27 3 0
28 3 0
29 3 0
30 3 0
31 3 0
32 3 0
33 3 0
34 3 0
35 3 0
36 3 0
37 3 0
38 3 0
39 3 0
40 3 0
41 3 0
42 3 0
43 3 0
44 3 0
45 3 0
46 3 0
47 3 0
48 3 0
49 3 0
50 3 0
51 3 0
52 3 0
53 3 0
54 3 0
55 3 0
56 3 0
57 3 0
58 3 0
59 3 0
60 3 0
0 4 0
1 4 0
2 4 0
3 4 0
4 4 0
5 4 0
6 4 0
7 4 0
8 4 0
9 4 0
10 4 0
11 4 0
12 4 0
13 4 0
14 4 0
15 4 0
16 4 0
17 4 0
18 4 0
19 4 0
20 4 0
21 4 0
22 4 0
23 4 0
24 4 0
25 4 0
26 4 0
27 4 0
28 4 0
29 4 0
30 4 0
31 4 0
32 4 0
33 4 0
34 4 0
35 4 0
36 4 0
37 4 0
38 4 0
39 4 0
40 4 0
41 4 0
42 4 0
43 4 0
44 4 0
45 4 0
46 4 0
47 4 0
48 4 0
49 4 0
50 4 0
51 4 0
52 4 0
53 4 0
54 4 0
55 4 0
56 4 0
57 4 0
58 4 0
59 4 0
60 4 0
0 5 0
1 5 0
2 5 0
3 5 0
4 5 0
5 5 0
6 5 0
7 5 0
8 5 0
9 5 0
10 5 0
11 5 0
12 5 0
13 5 0
14 5 0
15 5 0
16 5 0
17 5 0
18 5 0
19 5 0
20 5 0
21 5 0
22 5 0
23 5 0
24 5 0
25 5 0
26 5 0
27 5 0
28 5 0
29 5 0
30 5 0
31 5 0
32 5 0
33 5 0
34 5 0
35 5 0
36 5 0
37 5 0
38 5 0
39 5 0
40 5 0
41 5 0
42 5 0
43 5 0
44 5 0
45 5 0
46 5 0
47 5 0
48 5 0
49 5 0
50 5 0
51 5 0
52 5 0
53 5 0
54 5 0
55 5 0
56 5 0
57 5 0
58 5 0
59 5 0
60 5 0
0 6 0
1 6 0
2 6 0
3 6 0
4 6 0
5 6 0
6 6 0
7 6 0
8 6 0
9 6 0
10 6 0
11 6 0
12 6 0
13 6 0
14 6 0
15 6 0
16 6 0
17 6 0
18 6 0
19 6 0
20 6 0
21 6 0
22 6 0
23 6 0
24 6 0
25 6 0
26 6 0
27 6 0
28 6 0
29 6 0
30 6 0
31 6 0
32 6 0
33 6 0
34 6 0
35 6 0
36 6 0
37 6 0
38 6 0
39 6 0
40 6 0
41 6 0
42 6 0
43 6 0
44 6 0
45 6 0
46 6 0
47 6 0
48 6 0
49 6 0
50 6 0
51 6 0
52 6 0
53 6 0
54 6 0
55 6 0
56 6 0
57 6 0
58 6 0
59 6 0
60 6 0
0 7 0
1 7 0
2 7 0
3 7 0
4 7 0
5 7 0
6 7 0
7 7 0
8 7 0
9 7 0
10 7 0
11 7 0
12 7 0
13 7 0
14 7 0
15 7 0
16 7 0
17 7 0
18 7 0
19 7 0
20 7 0
21 7 0
22 7 0
23 7 0
24 7 0
25 7 0
26 7 0
27 7 0
28 7 0
29 7 0
30 7 0
31 7 0
32 7 0
33 7 0
34 7 0
35 7 0
36 7 0
37 7 0
38 7 0
39 7 0
40 7 0
41 7 0
42 7 0
43 7 0
44 7 0
45 7 0
46 7 0
47 7 0
48 7 0
49 7 0
50 7 0
51 7 0
52 7 0
53 7 0
54 7 0
55 7 0
56 7 0
57 7 0
58 7 0
59 7 0
60 7 0
0 8 0
1 8 0
2 8 0
3 8 0
4 8 0
5 8 0
6 8 0
7 8 0
8 8 0
9 8 0
10 8 0
11 8 0
12 8 0
13 8 0
14 8 0
15 8 0
16 8 0
17 8 0
18 8 0
19 8 0
20 8 0
21 8 0
22 8 0
23 8 0
24 8 0
25 8 0
26 8 0
27 8 0
28 8 0
29 8 0
30 8 0
31 8 0
32 8 0
33 8 0
34 8 0
35 8 0
36 8 0
37 8 0
38 8 0
39 8 0
40 8 0
41 8 0
42 8 0
43 8 0
44 8 0
45 8 0
46 8 0
47 8 0
48 8 0
49 8 0
50 8 0
51 8 0
52 8 0
53 8 0
54 8 0
55 8 0
56 8 0
57 8 0
58 8 0
59 8 0
60 8 0
0 9 0
1 9 0
2 9 0
3 9 0
4 9 0
5 9 0
6 9 0
7 9 0
8 9 0
9 9 0
10 9 0
11 9 0
12 9 0
13 9 0
14 9 0
15 9 0
16 9 0
17 9 0
18 9 0
19 9 0
20 9 0
21 9 0
22 9 0
23 9 0
24 9 0
25 9 0
26 9 0
27 9 0
28 9 0
29 9 0
30 9 0
31 9 0
32 9 0
33 9 0
34 9 0
35 9 0
36 9 0
37 9 0
38 9 0
39 9 0
40 9 0
41 9 0
42 9 0
43 9 0
44 9 0
45 9 0
46 9 0
47 9 0
48 9 0
49 9 0
50 9 0
51 9 0
52 9 0
53 9 0
54 9 0
55 9 0
56 9 0
57 9 0
58 9 0
59 9 0
60 9 0
0 10 0
1 10 0
2 10 0
3 10 0
4 10 0
5 10 0
6 10 0
7 10 0
8 10 0
9 10 0
10 10 0
11 10 0
12 10 0
13 10 0
14 10 0
15 10 0
16 10 0
17 10 0
18 10 0
19 10 0
20 10 0
21 10 0
22 10 0
23 10 0
24 10 0
25 10 0
26 10 0
27 10 0
28 10 0
29 10 0
30 10 0
31 10 0
32 10 0
33 10 0
34 10 0
35 10 0
36 10 0
37 10 0
38 10 0
39 10 0
40 10 0
41 10 0
42 10 0
43 10 0
44 10 0
45 10 0
46 10 0
47 10 0
48 10 0
49 10 0
50 10 0
51 10 0
52 10 0
53 10 0
54 10 0
55 10 0
56 10 0
57 10 0
58 10 0
59 10 0
60 10 0
0 11 0
1 11 0
2 11 0
3 11 0
4 11 0
5 11 0
6 11 0
7 11 0
8 11 0
9 11 0
10 11 0
11 11 0
12 11 0
13 11 0
14 11 0
15 11 0
16 11 0
17 11 0
18 11 0
19 11 0
20 11 0
21 11 0
22 11 0
23 11 0
24 11 0
25 11 0
26 11 0
27 11 0
28 11 0
29 11 0
30 11 0
31 11 0
32 11 0
33 11 0
34 11 0
35 11 0
36 11 0
37 11 0
38 11 0
39 11 0
40 11 0
41 11 0
42 11 0
43 11 0
44 11 0
45 11 0
46 11 0
47 11 0
48 11 0
49 11 0
50 11 0
51 11 0
52 11 0
53 11 0
54 11 0
55 11 0
56 11 0
57 11 0
58 11 0
59 11 0
60 11 0
0 12 0
1 12 0
2 12 0
3 12 0
4 12 0
5 12 0
6 12 0
7 12 0
8 12 0
9 12 0
10 12 0
11 12 0
12 12 0
13 12 0
14 12 0
15 12 0
16 12 0
17 12 0
18 12 0
19 12 0
20 12 0
21 12 0
22 12 0
23 12 0
24 12 0
25 12 0
26 12 0
27 12 0
28 12 0
29 12 0
30 12 0
31 12 0
32 12 0
33 12 0
34 12 0
35 12 0
36 12 0
37 12 0
38 12 0
39 12 0
40 12 0
41 12 0
42 12 0
43 12 0
44 12 0
45 12 0
46 12 0
47 12 0
48 12 0
49 12 0
50 12 0
51 12 0
52 12 0
53 12 0
54 12 0
55 12 0
56 12 0
57 12 0
58 12 0
59 12 0
60 12 0
0 13 0
1 13 0
2 13 0
3 13 0
4 13 0
5 13 0
6 13 0
7 13 0
8 13 0
9 13 0
10 13 0
11 13 0
12 13 0
13 13 0
14 13 0
15 13 0
16 13 0
17 13 0
18 13 0
19 13 0
20 13 0
21 13 0
22 13 0
23 13 0
24 13 0
25 13 0
26 13 0
27 13 0
28 13 0
29 13 0
30 13 0
31 13 0
32 13 0
33 13 0
34 13 0
35 13 0
36 13 0
37 13 0
38 13 0
39 13 0
40 13 0
41 13 0
42 13 0
43 13 0
44 13 0
45 13 0
46 13 0
47 13 0
48 13 0
49 13 0
50 13 0
51 13 0
52 13 0
53 13 0
54 13 0
55 13 0
56 13 0
57 13 0
58 13 0
59 13 0
60 13 0
0 14 0
1 14 0
2 14 0
3 14 0
4 14 0
5 14 0
6 14 0
7 14 0
8 14 0
9 14 0
10 14 0
11 14 0
12 14 0
13 14 0
14 14 0
15 14 0
16 14 0
17 14 0
18 14 0
19 14 0
20 14 0
21 14 0
22 14 0
23 14 0
24 14 0
25 14 0
26 14 0
27 14 0
28 14 0
29 14 0
30 14 0
31 14 0
32 14 0
33 14 0
34 14 0
35 14 0
36 14 0
37 14 0
38 14 0
39 14 0
40 14 0
41 14 0
42 14 0
43 14 0
44 14 0
45 14 0
46 14 0
47 14 0
48 14 0
49 14 0
50 14 0
51 14 0
52 14 0
53 14 0
54 14 0
55 14 0
56 14 0
57 14 0
58 14 0
59 14 0
60 14 0
0 15 0
1 15 0
2 15 0
3 15 0
4 15 0
5 15 0
6 15 0
7 15 0
8 15 0
9 15 0
10 15 0
11 15 0
12 15 0
13 15 0
14 15 0
15 15 0
16 15 0
17 15 0
18 15 0
19 15 0
20 15 0
21 15 0
22 15 0
23 15 0
24 15 0
25 15 0
26 15 0
27 15 0
28 15 0
29 15 0
30 15 0
31 15 0
32 15 0
33 15 0
34 15 0
35 15 0
36 15 0
37 15 0
38 15 0
39 15 0
40 15 0
41 15 0
42 15 0
43 15 0
44 15 0
45 15 0
46 15 0
47 15 0
48 15 0
49 15 0
50 15 0
51 15 0
52 15 0
53 15 0
54 15 0
55 15 0
56 15 0
57 15 0
58 15 0
59 15 0
60 15 0
0 16 0
1 16 0
2 16 0
3 16 0
4 16 0
5 16 0
6 16 0
7 16 0
8 16 0
9 16 0
10 16 0
11 16 0
12 16 0
13 16 0
14 16 0
15 16 0
16 16 0
17 16 0
18 16 0
19 16 0
20 16 0
21 16 0
22 16 0
23 16 0
24 16 0
25 16 0
26 16 0
27 16 0
28 16 0
29 16 0
30 16 0
31 16 0
32 16 0
33 16 0
34 16 0
35 16 0
36 16 0
37 16 0
38 16 0
39 16 0
40 16 0
41 16 0
42 16 0
43 16 0
44 16 0
45 16 0
46 16 0
47 16 0
48 16 0
49 16 0
50 16 0
51 16 0
52 16 0
53 16 0
54 16 0
55 16 0
56 16 0
57 16 0
58 16 0
59 16 0
60 16 0
0 17 0
1 17 0
2 17 0
3 17 0
4 17 0
5 17 0
6 17 0
7 17 0
8 17 0
9 17 0
10 17 0
11 17 0
12 17 0
13 17 0
14 17 0
15 17 0
16 17 0
17 17 0
18 17 0
19 17 0
20 17 0
21 17 0
22 17 0
23 17 0
24 17 0
25 17 0
26 17 0
27 17 0
28 17 0
29 17 0
30 17 0
31 17 0
32 17 0
33 17 0
34 17 0
35 17 0
36 17 0
37 17 0
38 17 0
39 17 0
40 17 0
41 17 0
42 17 0
43 17 0
44 17 0
45 17 0
46 17 0
47 17 0
48 17 0
49 17 0
50 17 0
51 17 0
52 17 0
53 17 0
54 17 0
55 17 0
56 17 0
57 17 0
58 17 0
59 17 0
60 17 0
0 18 0
1 18 0
2 18 0
3 18 0
4 18 0
5 18 0
6 18 0
7 18 0
8 18 0
9 18 0
10 18 0
11 18 0
12 18 0
13 18 0
14 18 0
15 18 0
16 18 0
17 18 0
18 18 0
19 18 0
20 18 0
21 18 0
22 18 0
23 18 0
24 18 0
25 18 0
26 18 0
27 18 0
28 18 0
29 18 0
30 18 0
31 18 0
32 18 0
33 18 0
34 18 0
35 18 0
36 18 0
37 18 0
38 18 0
39 18 0
40 18 0
41 18 0
42 18 0
43 18 0
44 18 0
45 18 0
46 18 0
47 18 0
48 18 0
49 18 0
50 18 0
51 18 0
52 18 0
53 18 0
54 18 0
55 18 0
56 18 0
57 18 0
58 18 0
59 18 0
60 18 0
0 19 0
1 19 0
2 19 0
3 19 0
4 19 0
5 19 0
6 19 0
7 19 0
8 19 0
9 19 0
10 19 0
11 19 0
12 19 0
13 19 0
14 19 0
15 19 0
16 19 0
17 19 0
18 19 0
19 19 0
20 19 0
21 19 0
22 19 0
23 19 0
24 19 0
25 19 0
26 19 0
27 19 0
28 19 0
29 19 0
30 19 0
31 19 0
32 19 0
33 19 0
34 19 0
35 19 0
36 19 0
37 19 0
38 19 0
39 19 0
40 19 0
41 19 0
42 19 0
43 19 0
44 19 0
45 19 0
46 19 0
47 19 0
48 19 0
49 19 0
50 19 0
51 19 0
52 19 0
53 19 0
54 19 0
55 19 0
56 19 0
57 19 0
58 19 0
59 19 0
60 19 0
0 20 0
1 20 0
2 20 0
3 20 0
4 20 0
5 20 0
6 20 0
7 20 0
8 20 0
9 20 0
10 20 0
11 20 0
12 20 0
13 20 0
14 20 0
15 20 0
16 20 0
17 20 0
18 20 0
19 20 0
20 20 0
21 20 0
22 20 0
23 20 0
24 20 0
25 20 0
26 20 0
27 20 0
28 20 0
29 20 0
30 20 0
31 20 0
32 20 0
33 20 0
34 20 0
35 20 0
36 20 0
37 20 0
38 20 0
39 20 0
40 20 0
41 20 0
42 20 0
43 20 0
44 20 0
45 20 0
46 20 0
47 20 0
48 20 0
49 20 0
50 20 0
51 20 0
52 20 0
53 20 0
54 20 0
55 20 0
56 20 0
57 20 0
58 20 0
59 20 0
60 20 0
0 21 0
1 21 0
2 21 0
3 21 0
4 21 0
5 21 0
6 21 0
7 21 0
8 21 0
9 21 0
10 21 0
11 21 0
12 21 0
13 21 0
14 21 0
15 21 0
16 21 0
17 21 0
18 21 0
19 21 0
20 21 0
21 21 0
22 21 0
23 21 0
24 21 0
25 21 0
26 21 0
27 21 0
28 21 0
29 21 0
30 21 0
31 21 0
32 21 0
33 21 0
34 21 0
35 21 0
36 21 0
37 21 0
38 21 0
39 21 0
40 21 0
41 21 0
42 21 0
43 21 0
44 21 0
45 21 0
46 21 0
47 21 0
48 21 0
49 21 0
50 21 0
51 21 0
52 21 0
53 21 0
54 21 0
55 21 0
56 21 0
57 21 0
[...]
POINT_DATA 26962
CELL_DATA 13200
SCALARS k double 3
LOOKUP_TABLE default
1037.09 1037.09 0.103709
2021.43 2021.43 0.202143
538.906 538.906 0.0538906
179.487 179.487 0.0179487
583.964 583.964 0.0583964
90.2023 90.2023 0.00902023
70.5481 70.5481 0.00705481
0.086331 0.086331 8.6331e-06
0.135165 0.135165 1.35165e-05
0.355573 0.355573 3.55573e-05
0.091636 0.091636 9.1636e-06
0.371629 0.371629 3.71629e-05
0.551727 0.551727 5.51727e-05
0.243683 0.243683 2.43683e-05
0.316152 0.316152 3.16152e-05
584.92 584.92 175.476
435.017 435.017 130.505
1810.33 1810.33 543.099
165.61 165.61 0.016561
18.8073 18.8073 0.00188073
11.9629 11.9629 0.00119629
15.609 15.609 0.0015609
8.19618 8.19618 0.000819618
18.3328 18.3328 0.00183328
21.665 21.665 0.0021665
19.6686 19.6686 0.00196686
31.82 31.82 0.003182
209.017 209.017 62.7051
602.651 602.651 0.0602651
293.473 293.473 88.0419
90.9319 90.9319 27.2796
188.231 188.231 56.4693
555.322 555.322 166.597
405.727 405.727 121.718
225.18 225.18 0.022518
99.6669 99.6669 0.00996669
506.567 506.567 0.0506567
350.518 350.518 0.0350518
902.734 902.734 0.0902734
83.047 83.047 0.0083047
1244.78 1244.78 373.434
7533.16 7533.16 2259.95
0.119826 0.119826 1.19826e-05
0.108813 0.108813 1.08813e-05
0.223737 0.223737 2.23737e-05
0.228106 0.228106 2.28106e-05
0.071211 0.071211 7.1211e-06
0.114632 0.114632 1.14632e-05
0.133163 0.133163 1.33163e-05
0.070906 0.070906 7.0906e-06
0.074676 0.074676 7.4676e-06
76.6279 76.6279 0.00766279
256.006 256.006 0.0256006
72.7324 72.7324 0.00727324
246.649 246.649 73.9947
278.789 278.789 83.6367
687.395 687.395 206.218
727.444 727.444 218.233
1416.03 1416.03 424.809
640.52 640.52 192.156
210.756 210.756 0.0210756
116.586 116.586 0.0116586
3331.3 3331.3 0.33313
6298.79 6298.79 0.629879
0.136388 0.136388 1.36388e-05
0.061122 0.061122 6.1122e-06
0.017127 0.017127 1.7127e-06
0.082018 0.082018 8.2018e-06
0.110852 0.110852 1.10852e-05
0.026108 0.026108 2.6108e-06
0.391504 0.391504 3.91504e-05
0.09208 0.09208 9.208e-06
0.077515 0.077515 7.7515e-06
233.987 233.987 0.0233987
384.197 384.197 0.0384197
653.854 653.854 0.0653854
709.525 709.525 212.857
3091.78 3091.78 927.534
4345.67 4345.67 1303.7
48.251 48.251 0.0048251
0.054819 0.054819 5.4819e-06
0.208974 0.208974 2.08974e-05
0.094255 0.094255 9.4255e-06
0.148519 0.148519 1.48519e-05
0.110174 0.110174 1.10174e-05
5.73118 5.73118 1.71935
7.91541 7.91541 2.37462
11.5777 11.5777 0.00115777
24.3953 24.3953 0.00243953
131.419 131.419 0.0131419
122.49 122.49 0.012249
443.354 443.354 0.0443354
238.848 238.848 71.6544
142.845 142.845 42.8535
248.124 248.124 74.4372
0.149782 0.149782 1.49782e-05
0.090508 0.090508 9.0508e-06
0.067674 0.067674 6.7674e-06
0.047566 0.047566 4.7566e-06
0.133584 0.133584 1.33584e-05
0.530057 0.530057 5.30057e-05
0.756841 0.756841 7.56841e-05
0.150404 0.150404 1.50404e-05
0.057971 0.057971 5.7971e-06
0.11458 0.11458 1.1458e-05
524.66 524.66 0.052466
1836.99 1836.99 0.183699
2516.28 2516.28 754.884
5498.05 5498.05 0.549805
2039.68 2039.68 0.203968
146.18 146.18 0.014618
35.8769 35.8769 0.00358769
52.1038 52.1038 0.00521038
110.465 110.465 33.1395
527.595 527.595 158.279
205.971 205.971 0.0205971
128.537 128.537 0.0128537
119.477 119.477 0.0119477
119.886 119.886 0.0119886
305.261 305.261 91.5783
0.018475 0.018475 1.8475e-06
0.035297 0.035297 3.5297e-06
0.123549 0.123549 1.23549e-05
0.035068 0.035068 3.5068e-06
0.244958 0.244958 2.44958e-05
0.408179 0.408179 4.08179e-05
0.127058 0.127058 1.27058e-05
0.414703 0.414703 4.14703e-05
191.607 191.607 57.4821
455.901 455.901 0.0455901
55.4703 55.4703 16.6411
66.6293 66.6293 0.00666293
51.9614 51.9614 0.00519614
165.892 165.892 0.0165892
1948.36 1948.36 584.508
2395.81 2395.81 718.743
52.8449 52.8449 0.00528449
88.9682 88.9682 0.00889682
93.6543 93.6543 28.0963
116.025 116.025 34.8075
33.7817 33.7817 0.00337817
67.4045 67.4045 0.00674045
408.382 408.382 0.0408382
165.999 165.999 0.0165999
1593.23 1593.23 0.159323
981.741 981.741 0.0981741
624.567 624.567 0.0624567
0.089651 0.089651 8.9651e-06
0.08142 0.08142 8.142e-06
0.055919 0.055919 5.5919e-06
0.080068 0.080068 8.0068e-06
0.194001 0.194001 1.94001e-05
0.040053 0.040053 4.0053e-06
0.686133 0.686133 6.86133e-05
0.439748 0.439748 4.39748e-05
1381.63 1381.63 414.489
1614.5 1614.5 484.35
1266.06 1266.06 379.818
928.809 928.809 278.643
305.215 305.215 91.5645
40.4144 40.4144 12.1243
23.406 23.406 7.0218
27.0153 27.0153 8.10459
23.6687 23.6687 7.10061
16.3389 16.3389 4.90167
16.6997 16.6997 5.00991
7.33955 7.33955 2.20186
16.1336 16.1336 4.84008
29.4014 29.4014 8.82042
146.918 146.918 44.0754
0.022274 0.022274 2.2274e-06
0.014807 0.014807 1.4807e-06
0.083611 0.083611 8.3611e-06
0.167855 0.167855 1.67855e-05
0.027266 0.027266 2.7266e-06
0.161682 0.161682 1.61682e-05
690.247 690.247 0.0690247
767.789 767.789 0.0767789
0.143539 0.143539 1.43539e-05
0.019317 0.019317 1.9317e-06
0.030175 0.030175 3.0175e-06
0.027624 0.027624 2.7624e-06
0.040559 0.040559 4.0559e-06
31.9229 31.9229 9.57687
31.6278 31.6278 9.48834
18.3976 18.3976 5.51928
8.62985 8.62985 2.58895
8.68737 8.68737 2.60621
4.00299 4.00299 1.2009
29.8482 29.8482 8.95446
77.6546 77.6546 23.2964
17.9837 17.9837 5.39511
43.3915 43.3915 13.0175
473.304 473.304 141.991
188.423 188.423 0.0188423
183.434 183.434 0.0183434
221.783 221.783 0.0221783
372.134 372.134 0.0372134
658.413 658.413 0.0658413
0.160207 0.160207 1.60207e-05
0.240816 0.240816 2.40816e-05
0.063496 0.063496 6.3496e-06
0.053997 0.053997 5.3997e-06
0.044222 0.044222 4.4222e-06
0.135632 0.135632 1.35632e-05
0.080943 0.080943 8.0943e-06
0.023585 0.023585 2.3585e-06
175.01 175.01 0.017501
328.266 328.266 0.0328266
197.755 197.755 0.0197755
115.366 115.366 0.0115366
308.066 308.066 0.0308066
247.233 247.233 0.0247233
127.837 127.837 0.0127837
68.4285 68.4285 0.00684285
72.446 72.446 0.0072446
73.2505 73.2505 0.00732505
5132.67 5132.67 0.513267
7884.4 7884.4 0.78844
2274.82 2274.82 0.227482
3646.96 3646.96 0.364696
101.667 101.667 0.0101667
61.1926 61.1926 18.3578
38.0187 38.0187 11.4056
28.1608 28.1608 8.44824
8.32417 8.32417 2.49725
18.5202 18.5202 0.00185202
24.6791 24.6791 0.00246791
0.100298 0.100298 1.00298e-05
0.024175 0.024175 2.4175e-06
0.032491 0.032491 3.2491e-06
0.173021 0.173021 1.73021e-05
0.079272 0.079272 7.9272e-06
0.02284 0.02284 2.284e-06
0.010018 0.010018 1.0018e-06
405.376 405.376 121.613
1571.64 1571.64 471.492
1094.61 1094.61 328.383
689.704 689.704 206.911
1728.17 1728.17 518.451
138.24 138.24 0.013824
0.212924 0.212924 2.12924e-05
2998 2998 0.2998
686.014 686.014 0.0686014
1226.49 1226.49 0.122649
380.001 380.001 0.0380001
14.9263 14.9263 4.47789
18.2614 18.2614 0.00182614
33.2359 33.2359 0.00332359
14.6158 14.6158 0.00146158
22.3043 22.3043 0.00223043
0.086034 0.086034 8.6034e-06
0.085196 0.085196 8.5196e-06
604.306 604.306 181.292
119.254 119.254 35.7762
526.71 526.71 158.013
218.06 218.06 65.418
527.215 527.215 0.0527215
523.376 523.376 157.013
0.145297 0.145297 1.45297e-05
0.001534 0.001534 1.534e-07
0.023259 0.023259 2.3259e-06
0.01147 0.01147 1.147e-06
0.048153 0.048153 4.8153e-06
0.016083 0.016083 1.6083e-06
0.06231 0.06231 6.231e-06
0.010013 0.010013 1.0013e-06
13.2048 13.2048 3.96144
5.86154 5.86154 1.75846
45.3485 45.3485 13.6045
27.3244 27.3244 8.19732
77.7218 77.7218 23.3165
102.212 102.212 0.0102212
423.47 423.47 127.041
238.566 238.566 0.0238566
156.057 156.057 0.0156057
229.392 229.392 0.0229392
354.404 354.404 0.0354404
0.221015 0.221015 2.21015e-05
0.069525 0.069525 6.9525e-06
0.157391 0.157391 1.57391e-05
0.073303 0.073303 7.3303e-06
549.623 549.623 0.0549623
340.746 340.746 0.0340746
533.923 533.923 0.0533923
2383.97 2383.97 0.238397
391.213 391.213 0.0391213
209.159 209.159 0.0209159
278.251 278.251 0.0278251
185.603 185.603 0.0185603
311.044 311.044 0.0311044
719.294 719.294 215.788
355.458 355.458 0.0355458
910.412 910.412 0.0910412
101.451 101.451 0.0101451
52.3855 52.3855 0.00523855
101.66 101.66 0.010166
95.7998 95.7998 0.00957998
63.5543 63.5543 0.00635543
184.549 184.549 0.0184549
0.055429 0.055429 5.5429e-06
0.059591 0.059591 5.9591e-06
141.852 141.852 0.0141852
373.215 373.215 0.0373215
70.1459 70.1459 0.00701459
127.299 127.299 0.0127299
614.067 614.067 0.0614067
226.18 226.18 0.022618
551.534 551.534 0.0551534
755.904 755.904 226.771
423.766 423.766 0.0423766
148.27 148.27 0.014827
144.971 144.971 0.0144971
169.634 169.634 0.0169634
268.143 268.143 0.0268143
194.767 194.767 0.0194767
287.973 287.973 0.0287973
204.218 204.218 0.0204218
126.211 126.211 0.0126211
240.327 240.327 0.0240327
8.81386 8.81386 0.000881386
19.1202 19.1202 0.00191202
91.6712 91.6712 0.00916712
89.8537 89.8537 0.00898537
218.315 218.315 0.0218315
110.072 110.072 0.0110072
93.7625 93.7625 0.00937625
67.2477 67.2477 0.00672477
17.0927 17.0927 0.00170927
40.1809 40.1809 0.00401809
59.7261 59.7261 0.00597261
48.5941 48.5941 14.5782
289.064 289.064 86.7192
629.728 629.728 188.918
397.96 397.96 0.039796
555.354 555.354 166.606
0.129334 0.129334 1.29334e-05
0.132751 0.132751 1.32751e-05
0.038066 0.038066 3.8066e-06
161.295 161.295 48.3885
0.057183 0.057183 5.7183e-06
0.021901 0.021901 2.1901e-06
0.018079 0.018079 1.8079e-06
0.066056 0.066056 6.6056e-06
0.042801 0.042801 4.2801e-06
20.0245 20.0245 6.00735
65.5294 65.5294 19.6588
43.6002 43.6002 13.0801
46.8566 46.8566 14.057
34.399 34.399 10.3197
27.3214 27.3214 8.19642
50.2932 50.2932 15.088
93.3297 93.3297 27.9989
188.658 188.658 0.0188658
138.382 138.382 0.0138382
358.743 358.743 0.0358743
289.522 289.522 0.0289522
77.2015 77.2015 0.00772015
280.945 280.945 0.0280945
20.5258 20.5258 0.00205258
0.422991 0.422991 4.22991e-05
0.541952 0.541952 5.41952e-05
0.135857 0.135857 1.35857e-05
0.242288 0.242288 2.42288e-05
0.02718 0.02718 2.718e-06
82.6188 82.6188 24.7856
66.0835 66.0835 19.8251
40.958 40.958 12.2874
48.3312 48.3312 14.4994
37.8027 37.8027 11.3408
17.0727 17.0727 0.00170727
0.075261 0.075261 7.5261e-06
0.231865 0.231865 2.31865e-05
0.099242 0.099242 9.9242e-06
0.169992 0.169992 1.69992e-05
365.458 365.458 0.0365458
119.844 119.844 0.0119844
260.447 260.447 0.0260447
44.6525 44.6525 0.00446525
42.8491 42.8491 12.8547
19.1886 19.1886 0.00191886
22.0303 22.0303 0.00220303
29.4991 29.4991 0.00294991
152.451 152.451 0.0152451
71.5454 71.5454 0.00715454
146.583 146.583 0.0146583
134.396 134.396 0.0134396
161.846 161.846 0.0161846
243.69 243.69 0.024369
132.442 132.442 0.0132442
68.7545 68.7545 0.00687545
192.79 192.79 0.019279
234.417 234.417 0.0234417
0.055703 0.055703 5.5703e-06
0.24287 0.24287 2.4287e-05
0.167538 0.167538 1.67538e-05
0.03424 0.03424 3.424e-06
0.015549 0.015549 1.5549e-06
0.003042 0.003042 3.042e-07
0.015375 0.015375 1.5375e-06
0.0591 0.0591 5.91e-06
0.119009 0.119009 1.19009e-05
0.146943 0.146943 1.46943e-05
0.158002 0.158002 1.58002e-05
0.022511 0.022511 2.2511e-06
0.032254 0.032254 3.2254e-06
0.085889 0.085889 8.5889e-06
49.6842 49.6842 0.00496842
11.4063 11.4063 0.00114063
42.7447 42.7447 0.00427447
97.6867 97.6867 0.00976867
26.7898 26.7898 8.03694
156.057 156.057 0.0156057
524.963 524.963 0.0524963
397.645 397.645 0.0397645
0.204145 0.204145 2.04145e-05
0.056286 0.056286 5.6286e-06
0.327994 0.327994 3.27994e-05
0.05321 0.05321 5.321e-06
0.070193 0.070193 7.0193e-06
43.7575 43.7575 0.00437575
147.853 147.853 0.0147853
432.57 432.57 0.043257
597.905 597.905 0.0597905
161.016 161.016 0.0161016
110.755 110.755 0.0110755
154.479 154.479 0.0154479
0.04744 0.04744 4.744e-06
21.3892 21.3892 0.00213892
94.1723 94.1723 0.00941723
77.1527 77.1527 0.00771527
70.5543 70.5543 0.00705543
126.86 126.86 38.058
373.233 373.233 0.0373233
792.43 792.43 0.079243
395.72 395.72 0.039572
0.103705 0.103705 1.03705e-05
0.25075 0.25075 2.5075e-05
0.119669 0.119669 1.19669e-05
0.079302 0.079302 7.9302e-06
0.115739 0.115739 1.15739e-05
0.158961 0.158961 1.58961e-05
0.148343 0.148343 1.48343e-05
0.125256 0.125256 1.25256e-05
0.081395 0.081395 8.1395e-06
0.077543 0.077543 7.7543e-06
143.069 143.069 42.9207
389.559 389.559 0.0389559
70.9776 70.9776 21.2933
190.326 190.326 57.0978
66.5836 66.5836 19.9751
219.83 219.83 65.949
337.647 337.647 101.294
199.53 199.53 59.859
94.7574 94.7574 0.00947574
217.391 217.391 0.0217391
144.882 144.882 0.0144882
35.5787 35.5787 0.00355787
21.9422 21.9422 0.00219422
10.3095 10.3095 0.00103095
21.1277 21.1277 0.00211277
7.19242 7.19242 0.000719242
0.080045 0.080045 8.0045e-06
0.168435 0.168435 1.68435e-05
945.128 945.128 0.0945128
1051.86 1051.86 0.105186
450.906 450.906 0.0450906
209.614 209.614 0.0209614
171.664 171.664 0.0171664
282.196 282.196 0.0282196
61.2645 61.2645 0.00612645
1188.49 1188.49 356.547
0.014347 0.014347 1.4347e-06
0.011504 0.011504 1.1504e-06
0.120615 0.120615 1.20615e-05
0.112217 0.112217 1.12217e-05
0.352666 0.352666 3.52666e-05
0.063573 0.063573 6.3573e-06
0.098991 0.098991 9.8991e-06
0.257144 0.257144 2.57144e-05
0.377999 0.377999 3.77999e-05
0.40154 0.40154 4.0154e-05
0.215496 0.215496 2.15496e-05
0.654786 0.654786 6.54786e-05
793.756 793.756 0.0793756
3901.04 3901.04 0.390104
1345.8 1345.8 0.13458
440.713 440.713 0.0440713
301.891 301.891 0.0301891
283.338 283.338 0.0283338
248.657 248.657 0.0248657
0.085088 0.085088 8.5088e-06
0.110968 0.110968 1.10968e-05
0.297375 0.297375 2.97375e-05
0.435736 0.435736 4.35736e-05
0.133437 0.133437 1.33437e-05
0.103362 0.103362 1.03362e-05
0.189232 0.189232 1.89232e-05
470.209 470.209 0.0470209
381.046 381.046 0.0381046
74.1565 74.1565 0.00741565
240.015 240.015 0.0240015
465.389 465.389 0.0465389
791.715 791.715 0.0791715
0.492409 0.492409 4.92409e-05
0.474382 0.474382 4.74382e-05
0.972302 0.972302 9.72302e-05
0.380682 0.380682 3.80682e-05
0.058547 0.058547 5.8547e-06
0.761469 0.761469 7.61469e-05
0.208107 0.208107 2.08107e-05
56.6592 56.6592 0.00566592
164.287 164.287 49.2861
118.874 118.874 35.6622
383.946 383.946 115.184
367.035 367.035 0.0367035
1031.63 1031.63 0.103163
1532.48 1532.48 459.744
0.292849 0.292849 2.92849e-05
0.674124 0.674124 6.74124e-05
0.1217 0.1217 1.217e-05
0.073786 0.073786 7.3786e-06
0.075454 0.075454 7.5454e-06
0.238654 0.238654 2.38654e-05
0.195859 0.195859 1.95859e-05
0.030696 0.030696 3.0696e-06
0.047539 0.047539 4.7539e-06
0.059556 0.059556 5.9556e-06
0.131456 0.131456 1.31456e-05
0.10687 0.10687 1.0687e-05
46.3185 46.3185 13.8956
72.917 72.917 21.8751
98.6834 98.6834 29.605
13.8802 13.8802 0.00138802
187.624 187.624 0.0187624
561.125 561.125 0.0561125
1706.54 1706.54 0.170654
4616.8 4616.8 0.46168
7991.19 7991.19 0.799119
3369.52 3369.52 0.336952
0.074053 0.074053 7.4053e-06
0.31757 0.31757 3.1757e-05
0.100647 0.100647 1.00647e-05
0.07598 0.07598 7.598e-06
0.100591 0.100591 1.00591e-05
0.024447 0.024447 2.4447e-06
0.147442 0.147442 1.47442e-05
39.3709 39.3709 11.8113
190.549 190.549 57.1647
113.941 113.941 34.1823
80.5839 80.5839 0.00805839
0.017899 0.017899 1.7899e-06
0.016913 0.016913 1.6913e-06
0.052018 0.052018 5.2018e-06
0.162574 0.162574 1.62574e-05
0.181549 0.181549 1.81549e-05
0.105331 0.105331 1.05331e-05
0.176998 0.176998 1.76998e-05
1682.76 1682.76 0.168276
3855.85 3855.85 0.385585
6188.76 6188.76 0.618876
10865.4 10865.4 1.08654
3768.84 3768.84 1130.65
865.778 865.778 259.733
1856.64 1856.64 556.992
2329.69 2329.69 0.232969
961.577 961.577 0.0961577
532.299 532.299 0.0532299
677.226 677.226 0.0677226
141.414 141.414 0.0141414
27.6167 27.6167 0.00276167
0.036558 0.036558 3.6558e-06
0.083879 0.083879 8.3879e-06
0.044514 0.044514 4.4514e-06
458.833 458.833 0.0458833
157.352 157.352 0.0157352
809.93 809.93 0.080993
468.826 468.826 0.0468826
385.369 385.369 0.0385369
169.362 169.362 0.0169362
857.697 857.697 0.0857697
0.079325 0.079325 7.9325e-06
0.263572 0.263572 2.63572e-05
0.237322 0.237322 2.37322e-05
0.687237 0.687237 6.87237e-05
2.93982 2.93982 0.000293982
0.396048 0.396048 3.96048e-05
0.172669 0.172669 1.72669e-05
0.457067 0.457067 4.57067e-05
0.398966 0.398966 3.98966e-05
187.201 187.201 0.0187201
25.0643 25.0643 0.00250643
73.0951 73.0951 0.00730951
148.595 148.595 44.5785
596.943 596.943 179.083
162.952 162.952 0.0162952
0.04049 0.04049 4.049e-06
782.325 782.325 0.0782325
305.546 305.546 0.0305546
197.151 197.151 0.0197151
0.057678 0.057678 5.7678e-06
0.087247 0.087247 8.7247e-06
0.006131 0.006131 6.131e-07
0.02163 0.02163 2.163e-06
0.027611 0.027611 2.7611e-06
0.046056 0.046056 4.6056e-06
0.092995 0.092995 9.2995e-06
0.141206 0.141206 1.41206e-05
0.133338 0.133338 1.33338e-05
0.769253 0.769253 7.69253e-05
0.262133 0.262133 2.62133e-05
0.187048 0.187048 1.87048e-05
0.026796 0.026796 2.6796e-06
0.207174 0.207174 2.07174e-05
0.247485 0.247485 2.47485e-05
0.171273 0.171273 1.71273e-05
7844.29 7844.29 0.784429
2381.41 2381.41 0.238141
1483.18 1483.18 0.148318
187.037 187.037 56.1111
0.069554 0.069554 6.9554e-06
0.033978 0.033978 3.3978e-06
0.070389 0.070389 7.0389e-06
0.017235 0.017235 1.7235e-06
0.145308 0.145308 1.45308e-05
0.204152 0.204152 2.04152e-05
0.033411 0.033411 3.3411e-06
0.071096 0.071096 7.1096e-06
0.025725 0.025725 2.5725e-06
0.023378 0.023378 2.3378e-06
0.17211 0.17211 1.7211e-05
0.02518 0.02518 2.518e-06
0.021188 0.021188 2.1188e-06
0.029383 0.029383 2.9383e-06
0.040713 0.040713 4.0713e-06
0.065344 0.065344 6.5344e-06
0.163732 0.163732 1.63732e-05
2447.18 2447.18 0.244718
1595.07 1595.07 0.159507
5654.3 5654.3 0.56543
4007.39 4007.39 1202.22
7037.09 7037.09 0.703709
5953.17 5953.17 1785.95
10590.2 10590.2 3177.06
11520.9 11520.9 1.15209
9961.96 9961.96 0.996196
4088.61 4088.61 0.408861
6850.7 6850.7 0.68507
3889.46 3889.46 0.388946
205.365 205.365 0.0205365
110.621 110.621 0.0110621
35.7855 35.7855 10.7356
550.998 550.998 0.0550998
481.699 481.699 0.0481699
222.189 222.189 66.6567
459.845 459.845 137.953
431.023 431.023 0.0431023
0.038331 0.038331 3.8331e-06
0.313174 0.313174 3.13174e-05
0.103906 0.103906 1.03906e-05
83.0052 83.0052 24.9016
287.346 287.346 86.2038
344.922 344.922 103.477
162.719 162.719 48.8157
130.058 130.058 39.0174
6882.58 6882.58 0.688258
5556.71 5556.71 0.555671
4929.87 4929.87 0.492987
3632.49 3632.49 0.363249
5246.18 5246.18 0.524618
2234.64 2234.64 0.223464
1057.51 1057.51 0.105751
521.574 521.574 0.0521574
275.393 275.393 82.6179
342.129 342.129 0.0342129
123.95 123.95 37.185
0.378581 0.378581 3.78581e-05
0.35028 0.35028 3.5028e-05
0.215442 0.215442 2.15442e-05
0.023148 0.023148 2.3148e-06
0.034781 0.034781 3.4781e-06
0.046247 0.046247 4.6247e-06
0.09634 0.09634 9.634e-06
167.962 167.962 0.0167962
326.986 326.986 0.0326986
62.1785 62.1785 18.6535
183.862 183.862 0.0183862
0.091153 0.091153 9.1153e-06
0.020332 0.020332 2.0332e-06
0.031991 0.031991 3.1991e-06
0.137949 0.137949 1.37949e-05
0.136239 0.136239 1.36239e-05
7562.16 7562.16 2268.65
14515.2 14515.2 4354.56
7453.78 7453.78 0.745378
7046.01 7046.01 0.704601
3060.08 3060.08 0.306008
13183.6 13183.6 1.31836
1467.93 1467.93 440.379
342.517 342.517 102.755
0.018009 0.018009 1.8009e-06
0.040816 0.040816 4.0816e-06
0.024346 0.024346 2.4346e-06
0.084691 0.084691 8.4691e-06
0.014969 0.014969 1.4969e-06
0.034721 0.034721 3.4721e-06
0.156139 0.156139 1.56139e-05
0.235228 0.235228 2.35228e-05
0.901679 0.901679 9.01679e-05
1.72765 1.72765 0.000172765
12.1339 12.1339 0.00121339
5.10548 5.10548 0.000510548
14.1374 14.1374 0.00141374
836.097 836.097 0.0836097
1419.38 1419.38 0.141938
2877.29 2877.29 0.287729
2748.25 2748.25 0.274825
8932.84 8932.84 0.893284
32.2187 32.2187 0.00322187
88.0528 88.0528 26.4158
0.136551 0.136551 1.36551e-05
0.057087 0.057087 5.7087e-06
0.128052 0.128052 1.28052e-05
0.034542 0.034542 3.4542e-06
0.014859 0.014859 1.4859e-06
0.081243 0.081243 8.1243e-06
0.131344 0.131344 1.31344e-05
0.110187 0.110187 1.10187e-05
9.38134 9.38134 0.000938134
5.69006 5.69006 0.000569006
383.436 383.436 0.0383436
325.018 325.018 0.0325018
680.354 680.354 0.0680354
337.293 337.293 0.0337293
2008.41 2008.41 0.200841
3037.82 3037.82 0.303782
1437 1437 431.1
538.482 538.482 161.545
162.282 162.282 48.6846
93.5182 93.5182 28.0555
52.732 52.732 15.8196
25.123 25.123 0.0025123
56.8601 56.8601 0.00568601
109.404 109.404 0.0109404
89.8798 89.8798 0.00898798
110.516 110.516 0.0110516
81.7284 81.7284 0.00817284
426.217 426.217 0.0426217